============================== echo of input deck ==============================
title "TUJKJAMUKRIRHC-UHFFFAOYSA-N"
start TUJKJAMUKRIRHC-UHFFFAOYSA-N

memory global 1600 mb heap 100 mb stack 600 mb

permanent_dir /entire/results/TUJKJAMUKRIRHC-UHFFFAOYSA-N/dft
#scratch_dir /scratch

echo
print low

charge 0
geometry noautoz noautosym
 load /entire/results/TUJKJAMUKRIRHC-UHFFFAOYSA-N/initial_structure/TUJKJAMUKRIRHC-UHFFFAOYSA-N.xyz
end

basis
 * library 6-31G*
end

driver
 maxiter 500
 xyz TUJKJAMUKRIRHC-UHFFFAOYSA-N_geom
end

set lindep:n_dep 0

dft
  maxiter 500
  xc b3lyp
  disp vdw 3
  mulliken
  print "mulliken ao"
  print "final vectors analysis"
end

task dft optimize ignore
task dft freq

cosmo
 dielec 80.4
 lineq  0
end

task dft energy

property
 dipole
end

task dft property
================================================================================

         Total DFT energy =      -76.408959742074
@ Step       Energy      Delta E   Gmax     Grms     Xrms     Xmax   Walltime
@ ---- ---------------- -------- -------- -------- -------- -------- --------
@    0     -76.40895974  0.0D+00  0.00073  0.00035  0.00000  0.00000      1.3
         Total DFT energy =      -76.408959432883
         Total DFT energy =    -76.408959432883
@    1     -76.40895943  3.1D-07  0.00125  0.00052  0.00377  0.00634      2.3
         Total DFT energy =      -76.408962806575

 Vector   16  Occ=0.000000D+00  E= 1.779803D+00

 Vector   17  Occ=0.000000D+00  E= 2.280691D+00

 Vector   18  Occ=0.000000D+00  E= 2.577288D+00

 Vector   19  Occ=0.000000D+00  E= 3.551969D+00

         Total DFT energy =    -76.408962806575
@    2     -76.40896281 -3.4D-06  0.00014  0.00007  0.00183  0.00343      3.4
         Total DFT energy =      -76.408962825327

 Vector    1  Occ=2.000000D+00  E=-1.913820D+01

 Vector    2  Occ=2.000000D+00  E=-9.978526D-01

 Vector    3  Occ=2.000000D+00  E=-5.171331D-01

 Vector    4  Occ=2.000000D+00  E=-3.722006D-01

 Vector    5  Occ=2.000000D+00  E=-2.911890D-01

 Vector    6  Occ=0.000000D+00  E= 6.258510D-02

 Vector    7  Occ=0.000000D+00  E= 1.481005D-01

 Vector    8  Occ=0.000000D+00  E= 7.724712D-01

 Vector    9  Occ=0.000000D+00  E= 8.608440D-01

 Vector   10  Occ=0.000000D+00  E= 8.907768D-01

 Vector   11  Occ=0.000000D+00  E= 8.950726D-01

 Vector   12  Occ=0.000000D+00  E= 1.065775D+00

 Vector   13  Occ=0.000000D+00  E= 1.193391D+00

 Vector   14  Occ=0.000000D+00  E= 1.729138D+00

 Vector   15  Occ=0.000000D+00  E= 1.746376D+00

 Vector   16  Occ=0.000000D+00  E= 1.779822D+00

 Vector   17  Occ=0.000000D+00  E= 2.280505D+00

 Vector   18  Occ=0.000000D+00  E= 2.577022D+00

 Vector   19  Occ=0.000000D+00  E= 3.551885D+00

         Total DFT energy =    -76.408962825327
@    3     -76.40896283 -1.9D-08  0.00004  0.00002  0.00012  0.00025      4.2
@    3     -76.40896283 -1.9D-08  0.00004  0.00002  0.00012  0.00025      4.2

 Output coordinates in angstroms (scale by  1.889725989 to convert to a.u.)

  No.       Tag          Charge          X              Y              Z
 ---- ---------------- ---------- -------------- -------------- --------------
    1 O                    8.0000     0.00231346     0.12064274    -0.00000000
    2 H                    1.0000    -0.77053953    -0.46349150     0.00000000
    3 H                    1.0000     0.75247607    -0.49239124    -0.00000000

         Total DFT energy =      -76.408962236595

 Vector    1  Occ=2.000000D+00  E=-1.913817D+01

 Vector    2  Occ=2.000000D+00  E=-9.978487D-01

 Vector    3  Occ=2.000000D+00  E=-5.171302D-01

 Vector    4  Occ=2.000000D+00  E=-3.721931D-01

 Vector    5  Occ=2.000000D+00  E=-2.911823D-01

 Vector    6  Occ=0.000000D+00  E= 6.258485D-02

 Vector    7  Occ=0.000000D+00  E= 1.481014D-01

 Vector    8  Occ=0.000000D+00  E= 7.724704D-01

 Vector    9  Occ=0.000000D+00  E= 8.608456D-01

 Vector   10  Occ=0.000000D+00  E= 8.907825D-01

 Vector   11  Occ=0.000000D+00  E= 8.950767D-01

 Vector   12  Occ=0.000000D+00  E= 1.065781D+00

 Vector   13  Occ=0.000000D+00  E= 1.193392D+00

 Vector   14  Occ=0.000000D+00  E= 1.729141D+00

 Vector   15  Occ=0.000000D+00  E= 1.746380D+00

 Vector   16  Occ=0.000000D+00  E= 1.779827D+00

 Vector   17  Occ=0.000000D+00  E= 2.280508D+00

 Vector   18  Occ=0.000000D+00  E= 2.577025D+00

 Vector   19  Occ=0.000000D+00  E= 3.551892D+00

 Zero-Point correction to Energy  =   13.271 kcal/mol  (  0.021148 au)
 Thermal correction to Energy     =   15.049 kcal/mol  (  0.023982 au)
 Thermal correction to Enthalpy   =   15.641 kcal/mol  (  0.024925 au)
 Total Entropy                    =   46.494 cal/mol-K
   - Translational                =   34.593 cal/mol-K (mol. weight =  18.0106)
   - Rotational                   =   11.896 cal/mol-K (symmetry #  =        1)
   - Vibrational                  =    0.005 cal/mol-K
   - Translational                  =    2.979 cal/mol-K
   - Rotational                     =    2.979 cal/mol-K
   - Vibrational                    =    0.035 cal/mol-K
 P.Frequency       -0.00        0.00        0.00        0.00        0.00        0.00
 P.Frequency     1712.73     3726.26     3848.49

 Normal Eigenvalue ||           Projected Infra Red Intensities
  Mode   [cm**-1]  || [atomic units] [(debye/angs)**2] [(KM/mol)] [arbitrary]
 ------ ---------- || -------------- ----------------- ---------- -----------
    1       -0.000 ||    0.091462           2.110        89.161      16.429
    2        0.000 ||    0.033190           0.766        32.356       5.962
    3        0.000 ||    0.131691           3.038       128.379      23.656
    4        0.000 ||    0.131687           3.038       128.375      23.655
    5        0.000 ||    0.013614           0.314        13.271       2.445
    6        0.000 ||    0.000001           0.000         0.001       0.000
    7     1712.731 ||    0.077745           1.794        75.790      13.966
    8     3726.258 ||    0.001737           0.040         1.693       0.312
    9     3848.494 ||    0.019897           0.459        19.397       3.574
 ----------------------------------------------------------------------------

         Total DFT energy =      -76.420734378161

 Vector    1  Occ=2.000000D+00  E=-1.913734D+01

 Vector    2  Occ=2.000000D+00  E=-9.956754D-01

 Vector    3  Occ=2.000000D+00  E=-5.130035D-01

 Vector    4  Occ=2.000000D+00  E=-3.778496D-01

 Vector    5  Occ=2.000000D+00  E=-2.966711D-01

 Vector    6  Occ=0.000000D+00  E= 8.334418D-02

 Vector    7  Occ=0.000000D+00  E= 1.702235D-01

 Vector    8  Occ=0.000000D+00  E= 7.768825D-01

 Vector    9  Occ=0.000000D+00  E= 8.579235D-01

 Vector   10  Occ=0.000000D+00  E= 8.810972D-01

 Vector   11  Occ=0.000000D+00  E= 8.909787D-01

 Vector   12  Occ=0.000000D+00  E= 1.064793D+00

 Vector   13  Occ=0.000000D+00  E= 1.198889D+00

 Vector   14  Occ=0.000000D+00  E= 1.723295D+00

 Vector   15  Occ=0.000000D+00  E= 1.741174D+00

 Vector   16  Occ=0.000000D+00  E= 1.772680D+00

 Vector   17  Occ=0.000000D+00  E= 2.279331D+00

 Vector   18  Occ=0.000000D+00  E= 2.575826D+00

 Vector   19  Occ=0.000000D+00  E= 3.547159D+00

         Total DFT energy =      -76.420734378161

                       DFT Final Molecular Orbital Analysis
                       ------------------------------------

 Vector    1  Occ=2.000000D+00  E=-1.913734D+01

 Vector    2  Occ=2.000000D+00  E=-9.956754D-01

 Vector    3  Occ=2.000000D+00  E=-5.130035D-01

 Vector    4  Occ=2.000000D+00  E=-3.778496D-01

 Vector    5  Occ=2.000000D+00  E=-2.966711D-01

 Vector    6  Occ=0.000000D+00  E= 8.334418D-02

 Vector    7  Occ=0.000000D+00  E= 1.702235D-01

 Vector    8  Occ=0.000000D+00  E= 7.768825D-01

 Vector    9  Occ=0.000000D+00  E= 8.579235D-01

 Vector   10  Occ=0.000000D+00  E= 8.810972D-01

 Vector   11  Occ=0.000000D+00  E= 8.909787D-01

 Vector   12  Occ=0.000000D+00  E= 1.064793D+00

 Vector   13  Occ=0.000000D+00  E= 1.198889D+00

 Vector   14  Occ=0.000000D+00  E= 1.723295D+00

 Vector   15  Occ=0.000000D+00  E= 1.741174D+00

 Vector   16  Occ=0.000000D+00  E= 1.772680D+00

 Vector   17  Occ=0.000000D+00  E= 2.279331D+00

 Vector   18  Occ=0.000000D+00  E= 2.575826D+00

 Vector   19  Occ=0.000000D+00  E= 3.547159D+00

 Total times  cpu:        7.6s     wall:       14.1s
